! Touchstone file from project Param_Via_DOE_L14
! Exported from HFSS 13.0.1
# GHZ S MA R 85.000000
! Terminal data exported
! Port[1] = Port1
! Port[2] = Port2
! Port[3] = Port3
! Port[4] = Port4
0.0001           0.101619167301908 179.718175273975 0.0292688112135067 1.18815209174674 0.989382165569906 -0.080559653972339 0.00242281720100318 -145.877389478417 
                0.0292649648694222 1.22609854202781 0.101342582484341 179.716869914549 0.00240196526143454 -146.161341648932 0.989422087653301 -0.0802641351540216 
                0.989382527368685 -0.0806259681004648 0.00240963590319536 -145.695831554207 0.110844807250375 1.05549724126779 0.0201113045749133 174.536893722009 
                0.00241491649958793 -146.346927341141 0.989421827108981 -0.0801759188796718 0.0201182280416746 174.475673100734 0.110593854398936 1.06429131890568 

0.1001           0.107122506529185 178.896251838414 0.0305891155599799 2.25025784269306 0.982657555310538 -1.06510717765613 0.00734216863649698 -164.489203236901 
                0.0305891151642817 2.2502596298871  0.106929020643401 178.922236667702 0.00732996177494892 -164.464749704563 0.982689288759012 -1.06433032551471 
                0.982657555283807 -1.06510717778749 0.00732996156793883 -164.464740555613 0.125786458969443 0.109423358046945 0.0118385510564181 168.160737939318 
                0.0073421687686653 -164.489212227118 0.982689288745658 -1.06433032541112 0.0118385518159529 168.160732630718 0.12557415674031 0.0900880095856638 

0.2001           0.107319671439925 177.223328406653 0.0307306929417141 4.41557168863584 0.981985122825886 -2.05475280419355 0.00807574229492122 -155.622615239989 
                0.0307306976865052 4.41557148514715 0.107132814101341 177.264799538994 0.00806369773274795 -155.59269538394 0.982022585308757 -2.05355079263006 
                0.981985122752404 -2.05475280253278 0.00806370129376663 -155.59270014774 0.126225255598961 -0.69762410257357 0.0117663207614682 161.292056699763 
                0.00807573872578233 -155.622610580668 0.982022585329913 -2.05355079288772 0.0117663194425175 161.292044571833 0.126006582181418 -0.738635385649289 

0.3001           0.107351614431793 175.642130174597 0.0309757127810179 6.56427244067115 0.981477205114808 -3.04146341110081 0.00896734092106999 -148.073261135353 
                0.0309757129886633 6.5642719350078  0.107167965362651 175.699693461188 0.00895528819456256 -148.0388758957  0.981519644354229 -3.03995073328864 
                0.981477205129429 -3.0414634106512 0.00895528811586943 -148.038880197627 0.126381465266502 -1.37055404578976 0.0119914467967733 154.353375957028 
                0.00896734102410658 -148.073256988478 0.981519644357684 -3.0399507333182 0.0119914460186102 154.353379669472 0.126155146651199 -1.4309502095554 

0.4001           0.10733604291267 174.096982587663 0.0313210327283936 8.65287065611905 0.981028517147981 -4.02543650533534 0.0100127914273855 -142.059267787211 
                0.031321032275462 8.65287196571507 0.107154361804244 174.170944145924 0.0100006558843877 -142.022186221078 0.981075377011271 -4.02367656178558 
                0.981028517122474 -4.02543650620818 0.0100006561148297 -142.022183123004 0.126466987720183 -1.99378029466855 0.012393385000038 147.701801577553 
                0.0100127911794862 -142.059270637994 0.981075377004845 -4.02367656145601 0.0123933848716443 147.701798918957 0.126233033139728 -2.0723074855468 

0.5001           0.107299957533061 172.571325972061 0.031761240140198 10.6579387905324 0.980608091559745 -5.00713872236535 0.0111765875925656 -137.401769549976 
                0.031761240171423 10.6579392948791 0.107119675227904 172.661842920033 0.0111643157834791 -137.363344826624 0.980658934670788 -5.00517280276143 
                0.980608091336803 -5.00713871958169 0.0111643159036762 -137.363343427698 0.126531620814379 -2.59225752385147 0.0129287414012197 141.47007180269  
                0.0111765874416588 -137.40177098536 0.980658934682398 -5.00517280322611 0.0129287417218987 141.470071317972 0.126290344382815 -2.688109590255  

0.6001           0.107252913438659 171.058212849706 0.0322904581768786 12.563056916546  0.980202563257511 -5.98692255181002 0.0124268880119657 -133.843750933952 
                0.0322904584867708 12.563056675924  0.107073693478408 171.165365542717 0.012414429691795 -133.804819638715 0.980257036407007 -5.984779777105  
                0.980202563314362 -5.98692255244774 0.0124144296778766 -133.804820843249 0.126592963959534 -3.17671864687195 0.0135708434770318 135.705942326247 
                0.0124268880304138 -133.843749699025 0.98025703640153 -5.98477977681409 0.0135708432698498 135.70594321991  0.126344715059286 -3.2893211455273 

0.7001           0.107199184746202 169.554150000131 0.0329025451700378 14.356484043401  0.979805004897526 -6.96504280058121 0.013739542325948 -131.147817199691 
                0.0329025452500227 14.3564840915406 0.107020803076781 169.677976617162 0.0137268564973574 -131.108846555149 0.979862814170025 -6.96274463715315 
                0.979805005030535 -6.96504280179012 0.0137268565490989 -131.108846417882 0.126658511213337 -3.75279500781295 0.0142996080559975 130.411029423145 
                0.0137395422904728 -131.147817328543 0.979862814166478 -6.96274463680948 0.0142996081599194 130.411029454716 0.126403630310294 -3.88170960945123 

0.8001           0.107141026771975 168.057161395661 0.0335912181658165 16.030343444777  0.979411435774643 -7.94168737747327 0.0150970474646271 -129.121361030675 
                0.0335912180651962 16.0303432531146 0.106963310190237 168.197679097111 0.0150841056388693 -129.082573231882 0.97947233285568 -7.93925065114192 
                0.979411435773252 -7.94168737694226 0.0150841054777516 -129.082573200546 0.126731738739772 -4.32383187389448 0.0150988976304327 125.561137310261 
                0.0150970476380712 -129.121361172661 0.979472332860257 -7.93925065122259 0.0150988976517383 125.561138248491 0.126470534739644 -4.46870984912293 

0.9001           0.107079796540114 166.566033658983 0.0343501935960454 17.5800773429317 0.979019424137089 -8.91700008436198 0.0164868378085597 -127.615721469436 
                0.0343501938304834 17.5800768876851 0.106902608785417 166.723246819065 0.016473622035463 -127.577201339322 0.979083195540669 -8.91443818450165 
                0.979019424129023 -8.9170000836494 0.016473621931334 -127.577202344525 0.126814269248343 -4.89199492956471 0.0159555417545671 121.119169142092 
                0.0164868379100967 -127.615720565437 0.979083195544463 -8.91443818456564 0.015955541561168 121.119169593202 0.126547027732025 -5.05254721943223 

1.0001           0.107016405330956 165.07997148508  0.0351733128449696 19.0039459207772 0.978627430791168 -9.8910949702698 0.0178998512953222 -126.518187053576 
                0.0351733128813723 19.0039457301594 0.106839628378336 165.253873107494 0.0178863532078426 -126.479941464448 0.978693891578163 -9.88841847876343 
                0.978627430819887 -9.89109497028096 0.0178863531702435 -126.479941799031 0.126906783994891 -5.45877305234848 0.0168587831573028 117.043254143147 
                0.0178998513504958 -126.518186829041 0.978693891584776 -9.88841847877361 0.0168587830888882 117.043254172514 0.126633763510505 -5.6347496491486 

1.1001           0.106951520599505 163.59841388984  0.0360546453438184 20.3025154436738 0.978234463154476 -10.8640644615539 0.0193294913790293 -125.743523431225 
                0.0360546451807332 20.3025156388378 0.106775051198063 163.788994806359 0.0193157119969629 -125.70551968187 0.978303451639542 -10.8612824671517 
                0.978234463166442 -10.8640644615396 0.0193157120070637 -125.70551925936 0.127009455333621 -6.02522502014862 0.0177998507279942 113.291562463908 
                0.019329491365516 -125.743523835111 0.978303451637668 -10.8612824672894 0.0177998507966344 113.291562447392 0.126730893609374 -6.21640934875911 

1.2001           0.106885661969629 162.120950892993 0.0369885698898836 21.478177712535  0.97783987736054 -11.8359867598371 0.0207709012331943 -125.226987944391 
                0.0369885697713774 21.4781777295469 0.106709409227703 162.328196278771 0.02075684915092 -125.189175562363 0.977911251251025 -11.833106699989 
                0.977839877385761 -11.8359867602632 0.0207568490949909 -125.189175436052 0.127122171071089 -6.59213346076117 0.0187716092649061 109.824865899275 
                0.0207709012850529 -125.22698802837 0.977911251243716 -11.833106699983 0.0187716092374281 109.824865992296 0.126838289188935 -6.79832953368996 

1.3001           0.106819253644474 160.647261381467 0.0379698259458343 22.5346950958412 0.977443257114793 -12.806928807778 0.0222204702762238 -124.91900114562 
                0.0379698259181475 22.5346950951223 0.106643132677102 160.871154056151 0.0222061600672916 -124.88132152639 0.977516890936148 -12.8039571709807 
                0.977443257144187 -12.8069288077171 0.0222061600453289 -124.881321531108 0.127244661811303 -7.1600814298774 0.0197682526396398 106.607709606968 
                0.0222204703080795 -124.919001200879 0.977516890939717 -12.8039571709738 0.0197682526136306 106.607709699679 0.126955663816496 -7.38111131694001 

1.4001           0.106752648037015 159.177085264516 0.0389935442844701 23.4768095662765 0.977044336639082 -13.7769495978606 0.0236754876273083 -124.781230062929 
                0.0389935442234541 23.4768094100687 0.106576582719017 159.417605542104 0.0236609393902536 -124.7436243572  0.977120118909631 -13.7738919829557 
                0.977044336613158 -13.7769495972832 0.0236609392670741 -124.74362452429 0.127376572365695 -7.72951209305477 0.0207850533771546 103.608742158656 
                0.0236754877471152 -124.781229919348 0.977120118908489 -13.7738919830547 0.0207850532369381 103.608742312465 0.127082651931904 -7.96521035688633 

1.5001           0.106686142626041 157.710202632266 0.0400552571418554 24.3099060108682 0.976642949258954 -14.7461017683574 0.0251339039941565 -124.783735973406 
                0.0400552571416113 24.309905853875  0.106510062854014 157.967328415465 0.0251191423146294 -124.746148970689 0.976720780715516 -14.7429631024173 
                0.976642949308514 -14.7461017685254 0.0251191422050174 -124.746149084582 0.127517508425035 -8.30076333932261 0.0218181517842221 100.800611309485 
                0.025133904100903 -124.783735831672 0.976720780707319 -14.7429631022111 0.0218181516868924 100.800611579186 0.127218849435159 -8.55097439102776 

1.6001           0.106619988697285 156.246421261808 0.0411508932309669 25.0397417797679 0.97623899324575 -15.7144328223023 0.0265941611758241 -124.902904194305 
                0.0411508931053105 25.0397420021283 0.106443830427743 156.520128932581 0.0265792143902919 -124.865283171456 0.976318784832527 -15.7112175777262 
                0.976238993257312 -15.7144328222498 0.0265792144457691 -124.865282863591 0.127667063804016 -8.87409329917589 0.0228643867341853 98.1596350800812 
                0.0265941611054799 -124.902904399188 0.97631878482269 -15.7112175778985 0.0228643868147675 98.1596348714891 0.127363843388308 -9.13866984889793 

1.7001           0.10655439766593 154.785570658604 0.0422767635561043 25.6722337486937 0.975832407671461 -16.6819861797107 0.0280550680473586 -125.119924555459 
                0.04227676354175 25.6722339655287 0.106378100835963 155.075834211387 0.0280399684088631 -125.082224453327 0.97591407949601 -16.6786984009061 
                0.975832407721477 -16.6819861804093 0.0280399685393074 -125.082224205378 0.127824837916783 -9.44970084773906 0.0239211594998627 95.6653899603711 
                0.0280550679272538 -125.119924775564 0.97591407949628 -16.6786984008052 0.0239211596564231 95.6653898163184 0.127517226691527 -9.72850128484549 

1.8001           0.106489545515458 153.327495511178 0.0434295376434423 26.2132950202407 0.975423156836859 -17.6488015483973 0.0295157130204033 -125.419680163568 
                0.0434295377068751 26.213295119558  0.10631305499775 153.634287786378 0.0295004956368907 -125.381859699214 0.975506636519067 -17.6454450580112 
                0.975423156833785 -17.6488015488527 0.0295004957469445 -125.381859593706 0.127990445983225 -10.0277377043655 0.0249863227503901 93.3002918133776 
                0.0295157129086429 -125.419680241004 0.975506636520731 -17.6454450580031 0.0249863228865099 93.3002917343393 0.127678611143364 -10.3206259210492 

1.9001           0.106425575522827 151.872055225325 0.0446062179902789 26.6687179933101 0.975011219032964 -18.6149156733331 0.0309753955913889 -125.789915251582 
                0.0446062180197935 26.6687180464269 0.106248840503348 152.19534654872  0.0309600981771055 -125.751937863513 0.97509644077086 -18.6114939820976 
                0.975011218996289 -18.6149156731764 0.0309600982392666 -125.751937828522 0.128163523749274 -10.6083218738815 0.0260580941663634 91.0491972000599 
                0.0309753955274656 -125.789915282214 0.975096440773934 -18.6114939821911 0.0260580942368233 91.0491971139344 0.12784763030878 -10.9151648838576 

2.0001           0.106362602821717 150.419119865161 0.0458041108012065 27.0440909594893 0.974596579421035 -19.5803623768802 0.0324335774991  -126.220612312582 
                0.0458041107991561 27.0440909787547 0.106185575946806 150.758878887224 0.0324182401273247 -126.182446638963 0.974683482996918 -19.5768788404454 
                0.974596579365863 -19.5803623765249 0.0324182401409224 -126.182446571738 0.12834373154412 -11.191543690586 0.0271349855687446 88.8990495160974 
                0.0324335774814334 -126.220612359573 0.974683482998421 -19.5768788404686 0.0271349856095215 88.8990495850547 0.128023942961002 -11.5122116217002 

2.1001           0.106300716610528 148.968569878117 0.047020797043854 27.3447441945309 0.974179225336367 -20.5451729182754 0.03388984442221 -126.703521500415 
                0.0470207971289763 27.3447441998916 0.106123354139789 149.324763669231 0.0338745093027734 -126.665139892463 0.974267755276086 -20.5416307727547 
                0.974179225267769 -20.5451729181725 0.0338745093628296 -126.665139885849 0.128530753906541 -11.7774732776059 0.0282157471171553 86.8385685196676 
                0.0338898443509649 -126.703521456773 0.974267755275755 -20.5416307727868 0.0282157471974305 86.8385684701498 0.128207233809004 -12.111838816668 

2.2001           0.10623998323219 147.520295570508 0.0482541046651441 27.5757176911075 0.973759143609124 -21.509376206216 0.0353438766374299 -127.231799329517 
                0.0482541046419883 27.5757176380052 0.106062244140219 147.892889260195 0.035328588232514 -127.193177870233 0.973849248405626 -21.5057785885709 
                0.973759143586546 -21.5093762058676 0.0353285881655611 -127.19317791299 0.128724299481595 -12.3661658796669 0.0292993230243318 84.8579843422827 
                0.035343876695844 -127.231799265292 0.973849248400416 -21.5057785885678 0.0292993229493893 84.8579843591907 0.128397211755178 -12.7141035439777 

2.3001           0.106180448507886 146.074196513956 0.0495020812814639 27.7417448239189 0.973336318935472 -22.4729990045918 0.0367954274748876 -127.799729754886 
                0.0495020812676309 27.7417448342785 0.106002294955887 146.463153308269 0.0367802317330433 -127.760848104511 0.973427950377507 -22.4693489113286 
                0.973336318868937 -22.4729990044784 0.0367802317379538 -127.760848087817 0.128924098621068 -12.9576659948123 0.030384814757639 82.9488119799699 
                0.0367954274676917 -127.799729762341 0.973427950379006 -22.4693489114   0.0303848147657471 82.9488119631704 0.128593609154676 -13.3190514738648 

2.4001           0.106122140412263 144.630179622911 0.0507629696632811 27.847248418944  0.972910733314515 -23.4360658482241 0.0382443056763239 -128.402507530652 
                0.0507629697241374 27.8472483665235 0.105943537187229 145.035461826908 0.038229250631366 -128.363348486298 0.973003845945784 -23.4323663274318 
                0.972910733239675 -23.4360658480948 0.0382292506394642 -128.363348542594 0.129129901977439 -13.5520086718644 0.0314714524678398 81.1036605136727 
                0.0382443056617597 -128.402507478368 0.973003845950159 -23.4323663274887 0.0314714524837665 81.1036605225023 0.128796178805531 -13.9267197524936 

2.5001           0.106065071289306 143.188161343209 0.0520351856071735 27.8963454655509 0.972482365966428 -24.3985995293937 0.0396903618104717 -129.036068885924 
                0.0520351856405887 27.8963454868197 0.105885985627304 143.609729155954 0.0396754970478317 -128.996617495882 0.972576916614085 -24.3948535203132 
                0.972482365957573 -24.3985995292605 0.0396754970912294 -128.996617476153 0.12934147770279 -14.1492247433012 0.0325585722647669 79.3160724931427 
                0.039690361767593 -129.036068914166 0.972576916618302 -24.3948535203577 0.0325585723178069 79.3160725098657 0.129004691762234 -14.5371397404981 

2.6001           0.106009239973093 141.748065196013 0.0533172973388095 27.8928571367968 0.97205119376014 -25.3606209643845 0.04113347813486 -129.696955732764 
                0.0533172972675735 27.8928571218558 0.105829641868185 142.185877565685 0.0411188550849931 -129.657199699356 0.97214714103    -25.3568313830783 
                0.972051193842436 -25.3606209645729 0.0411188549983539 -129.657199723758 0.129558609170684 -14.7493404207879 0.0336455969363874 77.5803891398833 
                0.0411334782201662 -129.696955687679 0.972147141018039 -25.3568313829531 0.0336455968251874 77.5803891022565 0.129218935230534 -15.1503387291399 

2.7001           0.105954634077401 140.309822243317 0.0546080071360866 27.8403225523409 0.971617191838958 -26.3221494089236 0.0425735611431016 -130.382209242168 
                0.0546080071616535 27.840322490222  0.105774495303089 140.763836559551 0.0425592324279058 -130.342138693472 0.971714495657558 -26.3183191365448 
                0.971617191749398 -26.3221494086229 0.042559232397967 -130.342138748658 0.129781092992045 -15.3523794341583 0.0347320202240474 75.8916365121271 
                0.0425735611660031 -130.382209188964 0.971714495660465 -26.3183191365858 0.0347320201947333 75.8916365336051 0.129438709241417 -15.766341173393 

2.8001           0.105901230834434 138.873369994426 0.0559061360295367 27.7420151770931 0.971180333900546 -27.2832024974005 0.0440105343539164 -131.089284497036 
                0.0559061359397403 27.7420151511553 0.105720525966388 139.343542892409 0.0439965544389479 -131.048890978027 0.971278955481907 -27.2793344481846 
                0.971180333857761 -27.2832024974005 0.0439965543352931 -131.048890978321 0.130008735757229 -15.9583633132974 0.0358173956724151 74.245429862144  
                0.044010534445661 -131.089284458669 0.971278955471835 -27.2793344481652 0.0358173955607454 74.2454298638775 0.12966382533452 -16.3851699206862 

2.9001           0.105848999953856 137.43865337223  0.0572106091141049 27.6009601082299 0.970740593503501 -28.2437965094299 0.0454443342953041 -131.815980266575 
                0.0572106091379933 27.6009600891822 0.105667705297306 137.924939817758 0.0454307588200965 -131.775257582479 0.970840494767308 -28.2398935357703 
                0.970740593407139 -28.2437965090318 0.0454307588478892 -131.77525759429 0.130241353400956 -16.5673135229303 0.0369013256183318 72.6378925529575 
                0.0454443342680406 -131.815980289619 0.970840494779845 -28.2398935359339 0.0369013256593158 72.6378925905324 0.129894103696191 -17.0068466944583 

3.0001           0.105797903693725 136.005622619434 0.0585204438982961 27.4199512726775 0.970297944244857 -29.2039462957651 0.0468749062159716 -132.560384050281 
                0.0585204438733781 27.4199513140238 0.105615998114744 136.507976958607 0.0468617926178767 -132.519327281966 0.970399087840013 -29.2000112786258 
                0.970297944331709 -29.2039462961789 0.0468617926200114 -132.519327246107 0.130478767915498 -17.1792500997635 0.0379834539540468 71.0655880161102 
                0.0468749062153723 -132.560384061398 0.970399087831265 -29.2000112785358 0.0379834539485746 71.0655879884911 0.130129371755649 -17.6313927497803 

3.1001           0.105747899230476 134.57423455281  0.059834738842151 27.2015691007331 0.969852360990365 -30.1636655595115 0.0483022018867144 -133.32082549559 
                0.0598347388479979 27.2015691405486 0.105565363213207 135.092609580097 0.0482896087850284 -133.279431402299 0.969954709731304 -30.1597013147732 
                0.969852360980291 -30.1636655596675 0.0482896088390064 -133.279431357593 0.130720806957598 -17.7941937143516 0.0390634586261093 69.5254611056298 
                0.0483022018350753 -133.320825531592 0.969954709732815 -30.1597013148484 0.0390634586869377 69.5254611000818 0.130369461936526 -18.2588289526169 

3.2001           0.105698938635987 133.144450407518 0.0611526643072875 26.9481965945553 0.969403819808914 -31.1229667635627 0.0497261772186812 -134.095839257441 
                0.061152664405341 26.9481966200692 0.105515755381794 133.67879853214  0.0497141647646561 -134.054105988996 0.969507336813141 -31.1189761351641 
                0.96940381981048 -31.1229667638396 0.0497141648685753 -134.054105974615 0.130967301352828 -18.4121639805629 0.0401410465079922 68.0147892957809 
                0.0497261771223985 -134.095839273506 0.969507336819689 -31.1189761351504 0.0401410466196394 68.0147892934803 0.130614211046809 -18.8891761805771 

3.3001           0.105650970833661 131.716236786488 0.0624734546027788 26.6620355875493 0.968952298963407 -32.0818613625425 0.051146790574222 -134.884134414031 
                0.0624734545930272 26.6620355889006 0.105467125221575 132.26650953514  0.0511354203874597 -134.842061102289 0.969056947392975 -32.0778471859305 
                0.968952298939664 -32.0818613625355 0.0511354203802828 -134.842061097575 0.131218084755645 -19.033180888089 0.041215949266985 66.531140188425  
                0.0511467905779201 -134.884134403955 0.969056947390374 -32.077847185954 0.0412159492606114 66.5311401743933 0.130863458023842 -19.5224551821054 

3.4001           0.105603941515665 130.289564466193 0.0637964001904706 26.3451213259503 0.968497779163293 -33.0403598275606 0.0525640021224568 -135.684568200469 
                0.0637964001526209 26.3451212977509 0.105419420743049 130.85571288791  0.0525533370163052 -135.642155372372 0.968603522091554 -33.0363249429986 
                0.968497779139795 -33.0403598271495 0.0525533369519792 -135.642155392269 0.131472991944738 -19.6572640208973 0.0422879188395326 65.0723351793894 
                0.0525640021792969 -135.684568179914 0.968603522089168 -33.0363249429982 0.0422879187743646 65.0723351911674 0.131117043560995 -20.1586866113687 

3.5001           0.105557794151402 128.864408926324 0.0651208424121352 25.9993363958134 0.968040243968879 -33.9984718127973 0.0539777722951623 -136.49612555539 
                0.0651208424010841 25.9993364009883 0.105372587622845 129.446383068076 0.053967876367134 -136.45337470027 0.968147044291291 -33.9944190078969 
                0.968040243990727 -33.9984718129294 0.0539678763536876 -136.453374691705 0.131731858248187 -20.2844333912514 0.0433567255122966 63.6364188880675 
                0.0539777723064321 -136.496125547802 0.968147044286384 -33.9944190078481 0.0433567254967542 63.6364188804838 0.13137480891843 -20.79789097148  

3.6001           0.105512470780972 127.440748780104 0.0664461675434868 25.6264234092484 0.9675796801106  -34.9562060988997 0.0553880616423947 -137.317900850233 
                0.0664461675349887 25.6264234310028 0.105326569969405 128.038498489306 0.0553790004351569 -137.274814472846 0.96768750040319 -34.9521381771174 
                0.967579680147195 -34.9562060991731 0.0553790004423391 -137.274814453363 0.13199451905173 -20.914708083088 0.0444221547007189 62.2216321017473 
                0.0553880616382133 -137.317900849318 0.967687500397487 -34.9521381770502 0.0444221547042635 62.2216320742252 0.131636595307783 -21.4400886060377 

3.7001           0.105467911905686 126.018566246976 0.06777180230383 25.2279967294769 0.967116077625722 -35.9135707722955 0.0567948303752458 -138.149083185046 
                0.0677718023119148 25.2279967327828 0.105281310657693 126.632040973955 0.0567866707295656 -138.105664852889 0.967224880112562 -35.9094905177191 
                0.967116077703656 -35.9135707725572 0.056786670729984 -138.10566486662 0.132260808687663 -21.5481070210443 0.0454840051195641 60.8263888231246 
                0.0567948303811208 -138.149083181871 0.967224880111152 -35.9094905176268 0.0454840051116881 60.8263888042322 0.131902243221474 -22.0852994376744 

3.8001           0.105424057545834 124.597846783908 0.0690972097555338 24.8055532073014 0.966649430119009 -36.8705732639215 0.0581980381615665 -138.988944058404 
                0.0690972097545401 24.8055532004492 0.105236751764788 125.226995482691 0.0581908481305659 -138.945198109634 0.966759176550888 -36.8664834331787 
                0.966649430117843 -36.870573263841 0.0581908481356304 -138.945198120413 0.132530560664754 -22.1846487204996 0.0465420870288121 59.4492563686112 
                0.0581980381620477 -138.988944065917 0.966759176554886 -36.8664834331898 0.0465420870308745 59.4492563711428 0.13217159202387 -22.7335428847461 

3.9001           0.105380846842858 123.178578319687 0.0704218855640674 24.3604819450053 0.966179734720883 -37.8272203845296 0.0595976440620041 -139.836826278696 
                0.0704218856612486 24.3604819343207 0.105192834296572 123.823348820983 0.0595914928488755 -139.792758227396 0.966290386423616 -37.8231235877055 
                0.966179734659151 -37.827220384142 0.0595914929574532 -139.792758210269 0.132803606608337 -22.8243507594655 0.0475962206659931 58.0889379186873 
                0.0595976439534529 -139.836826307593 0.966290386456411 -37.8231235879545 0.0475962207885499 58.0889380003743 0.132444478646596 -23.3848366661055 

4.0001           0.105338218740186 121.760751309788 0.0717453556192646 23.894073720243  0.965706992183245 -38.7835184063272 0.0609936060052199 -140.692136074374 
                0.0717453556269411 23.8940737219237 0.105149501367835 122.42109446055  0.0609885644360788 -140.647751412317 0.965818510017115 -38.7794176584178 
                0.965706992245109 -38.7835184066269 0.0609885644318064 -140.647751419252 0.133079776475853 -23.4672299419649 0.0486462356840303 56.7442572025693 
                0.0609936060123962 -140.692136062063 0.965818510013021 -38.7794176583225 0.0486462356734295 56.7442571833536 0.132720741913776 -24.0392021076933 

4.1001           0.105296112051575 120.3443583681   0.073067171993034 23.4075282661793 0.965231207208661 -39.7394731064841 0.0623858817301218 -141.554333697946 
                0.0730671721313352 23.4075282637256 0.1051066924763  121.020221976023 0.0623820212439784 -141.509639440914 0.965343551324407 -39.7353710019591 
                0.965231207305064 -39.7394731063023 0.0623820214252101 -141.509639410699 0.13335889817033 -24.1133021046428 0.0496919690610778 55.414145887117  
                0.0623858815569029 -141.554333728976 0.965343551336639 -39.7353710023099 0.04969196924164 55.4141459659193 0.133000213184485 -24.6966530822187 

4.2001           0.105254466090743 118.929394337211 0.0743869118958982 22.9019625098275 0.96475238792283 -40.6950898585616 0.0637744278518177 -142.422928279121 
                0.0743869116605875 22.9019625339244 0.1050643487878  119.620725836743 0.0637718219384962 -142.377932190053 0.96486551808293 -40.6909889249077 
                0.964752387997278 -40.6950898589487 0.0637718216721886 -142.377932247644 0.13364079804343 -24.7625823143783 0.0507332654569729 54.0976315924268 
                0.0637744281258229 -142.422928246628 0.964865518082529 -40.69098892432  0.0507332651751401 54.0976314313785 0.133282724303383 -25.3572055066779 

4.3001           0.105213220374688 117.515856692549 0.0757041746062476 22.3784174779676 0.964270546153915 -41.6503737703229 0.0651592011425611 -143.297472245417 
                0.0757041746504998 22.3784174965389 0.105022414432078 118.222606262042 0.065157923152144 -143.252182345926 0.964384421164075 -41.6462768609986 
                0.964270546110759 -41.6503737705441 0.0651579232062229 -143.252182314362 0.133925300726739 -25.4150854313654 0.0517699751336422 52.7938268563382 
                0.0651592010797359 -143.2974722449  0.96438442116205 -41.6462768611186 0.0517699752054285 52.7938268593751 0.133568108542945 -26.0208783655216 

4.4001           0.105172313483412 116.103741703585 0.0770185802045784 21.8378631902276 0.96378569730719 -42.6053292317817 0.0665401569642568 -144.177555258858 
                0.077018580332941 21.8378631933926 0.104980828494654 116.825857225425 0.0665402822270069 -144.131980658792 0.963900275705873 -42.6012388408574 
                0.963785697260544 -42.605329231524 0.0665402824025414 -144.131980606603 0.134212226718432 -26.0708222109724 0.0528019552204117 51.5019229298721 
                0.0665401567849885 -144.177555279696 0.963900275729796 -42.601238841304 0.0528019554139669 51.501923006597  0.1338561898402  -26.6876810968057 

4.5001           0.105131685386321 114.693048854425 0.0783297679452947 21.2812057907463 0.963297860202664 -43.5599605660104 0.0679172506103235 -145.062801503941 
                0.0783297680557639 21.2812057725951 0.10493953498807 115.430480795977 0.0679188556054352 -145.016951513498 0.963413099767381 -43.555879481145 
                0.963297860320372 -43.5599605660756 0.0679188557355125 -145.016951484049 0.134501396059515 -26.7298040404323 0.0538290678278197 50.2211790321965 
                0.0679172504841924 -145.062801519323 0.963413099774149 -43.5558794814013 0.0538290679309793 50.2211791300452 0.134146796168335 -27.3576289619858 
