! Touchstone file from project VIA2
! Exported from HFSS 12.1.1
! Variables:
!  H = 0.65mil
!  Layer_H = 20.65mil
!  MS_S = 6.75mil
!  MS_W = 4.75mil
!  SL_S = 7.5mil
!  SL_W = 6.75mil
!  Via_Pad_R = 11mil
!  Via_R = 10mil
!  Via_S = 40mil
!  Z_route = -72.625mil
!  dAnti_Pad_R = 25mil
!  gVia_S = 109mil
# GHZ S MA R 50.000000
! Terminal data exported
! Port[1] = p1_N
! Port[2] = p2_P
! Port[3] = p3_N
! Port[4] = p4_P
0                7.07911715240352E-005 180              0.000114601651688417 0                0.999415203666434 0                2.96946709568147E-005 0                
                0.000114599294265112 0                7.36212627998611E-005 180              3.00115123621353E-005 0                0.99941721782011 0                
                0.999415203767884 0                3.00123850820455E-005 0                0.000162449636113171 180              6.89857487543577E-005 0                
                2.96937647574769E-005 0                0.999417217731661 0                6.89865013994567E-005 0                0.000166802947433098 180              

0.02             0.000417857655798938 93.3604496820156 0.00134414812946614 84.6314868267539 0.999390597253077 -0.390541382280719 0.000474841588672799 -87.9938194317078 
                0.00134414448126921 84.6315712468158 0.000422959492470934 93.7056933152777 0.000474804799241175 -87.9568345753244 0.999392593174522 -0.39041667352718 
                0.99939059735372 -0.390541374235827 0.000474803198750362 -87.9567252753564 0.000410509439060636 105.475366848676 0.00134197092253617 86.4139683249562 
                0.000474843183619036 -87.9939323708357 0.999392593086851 -0.390416681489624 0.00134197110572569 86.4139371268113 0.0004176696162285 105.791087195111 

0.04             0.000826490434363936 83.1398370366815 0.00267747098572408 86.5919122862158 0.999320287935167 -0.779842279884309 0.000947015970583013 -91.1863202897143 
                0.00267746510539855 86.5919513910169 0.000836341209600934 83.4143948178135 0.000946932359985321 -91.1698884583444 0.999322231602999 -0.779596289482086 
                0.999320288032663 -0.779842266504358 0.00094692960113888 -91.1698444887707 0.000787067430939965 87.4482269737181 0.00267750593017894 87.2688025485449 
                0.000947018721730932 -91.1863657646482 0.999322231517554 -0.779596302722829 0.00267750616062174 87.2687879559589 0.000799358296484616 87.7353852806532 

0.06             0.00122866041231889 77.8879516459128 0.00400621345784859 86.9281650796019 0.999213605688929 -1.16692364178795 0.00141694782017098 -92.8708283121207 
                0.00400620727042729 86.9281877554363 0.00124398525807954 78.1581575077926 0.00141685796087349 -92.8616328523855 0.999215474417888 -1.16656229332698 
                0.999213605778642 -1.16692362781311 0.00141685498949162 -92.8616109349314 0.00118996256943766 78.7766765189285 0.00400691346514233 87.186643011292  
                0.00141695078354549 -92.8708509032417 0.999215474338778 -1.1665623071573 0.00400691362341316 87.1866348265904 0.00120758665553076 79.0569336967459 

0.08             0.00160931031973682 75.5169318528477 0.00532774807381466 86.8563168992499 0.999082678936028 -1.55126450054148 0.00188345027579033 -93.8684469012159 
                0.00532774383835304 86.8563303753446 0.00163097479035925 75.7795212837881 0.0018833925279261 -93.8626524767136 0.999084478926607 -1.55079466256051 
                0.999082679009642 -1.55126449137373 0.00188339041121901 -93.8626397946495 0.00159213671338958 74.527996729008  0.00532826514588288 86.9137780374585 
                0.00188345238700184 -93.868459789639 0.999084478861734 -1.5507946716361 0.00532826509614697 86.9137738380641 0.00161522405350646 74.7885219537182 

0.1              0.00196146226091319 75.3821475782293 0.00664195522328393 86.6219048358625 0.998939061958443 -1.93290896330019 0.00234644461918256 -94.3829121987348 
                0.00664195464832764 86.6219113662053 0.00199019531459872 75.6187988512545 0.00234644360353821 -94.3786135096761 0.998940850587046 -1.93233663238988 
                0.998939062002823 -1.93290896296166 0.00234644315600692 -94.3786061756833 0.00196846342036148 73.3800085094018 0.00664175041202782 86.597499316713  
                0.00234644506637383 -94.3829194749841 0.998940850549315 -1.93233663273448 0.00664175007535736 86.5974979808364 0.00199726162398898 73.6050264442367 

0.12             0.00229494826087669 76.5799174769537 0.00795048490704542 86.3125194782035 0.998791598785902 -2.31251800481597 0.00280715748825023 -94.6237542752172 
                0.00795048800866 86.3125187904078 0.00233072349602388 76.7784415877502 0.00280720375171561 -94.6197102339713 0.998793499313452 -2.31184630273502 
                0.998791598782236 -2.31251801321101 0.00280720501377112 -94.6197099289313 0.0023127897063654 74.1223218010988 0.00794943372710124 86.2739956635532 
                0.00280715623194975 -94.6237544308309 0.998793499321634 -2.31184629445121 0.00794943316160851 86.2739963026079 0.00234749258726903 74.3076935726104 

0.14             0.00263364376337555 77.5411433650097 0.0092567408560836 85.977224364857  0.998645930698076 -2.69141988344232 0.00326762661196241 -94.9152110105488 
                0.00925674458401795 85.9772141502344 0.00267502806546134 77.7219824586448 0.00326764963709663 -94.9104242711978 0.998648125210526 -2.69064696518081 
                0.998645930622308 -2.69141989304245 0.00326765123635445 -94.9104362904211 0.00265052182816628 74.5771591631209 0.00925511476816069 85.9372153220831 
                0.00326762502171773 -94.9151989221198 0.998648125288858 -2.69064695573137 0.00925511425730542 85.9372171120044 0.00269102175779051 74.7548472249953 

0.16             0.00297355861580209 78.2660844037223 0.0105606099846607 85.629405227467  0.998501761657787 -3.06970084943509 0.00372779485924961 -95.2417659687266 
                0.0105606130357357 85.6293911084566 0.00302055608279205 78.4443129191197 0.00372779668927087 -95.2357511153772 0.998504294191047 -3.0688313290943 
                0.998501761539232 -3.0697008571004 0.00372779800659835 -95.235768601687 0.00298726516276864 74.885065798912  0.0105587811180309 85.5880206976592 
                0.00372779355030756 -95.2417484856551 0.998504294310613 -3.06883132157632 0.0105587807538849 85.588022757993  0.00303387987830032 75.0592463132614 

0.18             0.00331327834544064 78.8252880689827 0.01186234398074 85.2741619159449 0.998358706567993 -3.44744983464481 0.0041876407607017 -95.5931800849789 
                0.0118623460324987 85.2741480297271 0.00336622240792293 79.0039187507546 0.00418763809009369 -95.5859172940539 0.998361552081878 -3.44648751003165 
                0.998358706437609 -3.44744983965677 0.00418763896088283 -95.5859347714301 0.00332506818458376 75.0628446369107 0.0118603889106265 85.2297845111478 
                0.00418763989588486 -95.5931626446422 0.998361552212197 -3.44648750513952 0.0118603886935696 85.2297863702477 0.00337799549791208 75.2311694432212 

0.2              0.00365277570251137 79.2678184728101 0.0131621672482671 84.9136808853156 0.998216310788044 -3.82474072558574 0.00464716412999978 -95.962804063104 
                0.0131621684077338 84.9136691576438 0.00371191862729875 79.4450559211933 0.00464716975953308 -95.954423112249 0.998219428126066 -3.82368756643931 
                0.9982163106662  -3.82474072827074 0.00464717022698411 -95.9544379289496 0.00366411564222209 75.1231949783039 0.0131599772379216 84.8651806272851 
                0.00464716366596355 -95.9627892894626 0.998219428247223 -3.82368756383672 0.0131599771352868 84.8651821151902 0.00372340207977473 75.2835601882858 

0.22             0.00399236665271234 79.6217038119276 0.0144602233668715 84.5491233004072 0.998074126818046 -4.2016306627962 0.00510637033467357 -96.3462471334387 
                0.0144602238740353 84.5491142365364 0.00405781512622849 79.795317111166  0.00510639071937248 -96.3368747599571 0.998077481151138 -4.20048743142109 
                0.998074126714859 -4.20163066379624 0.00510639089389847 -96.3368861748842 0.00400406171890941 75.084089818926  0.0144576180576369 84.4959609995301 
                0.0051063701615947 -96.3462357544332 0.998077481253382 -4.2004874304667 0.0144576180316451 84.4959621049966 0.00406967400039122 75.2357708071178 

0.24             0.00433230626956352 79.903575696137  0.0157565920093227 84.1812535074646 0.99793176081514 -4.57816303435596 0.00556526156090009 -96.7405127283169 
                0.0157565921033794 84.181246914261  0.00440406648466962 80.0722983771232 0.00556529895882367 -96.7302315068588 0.997935328478475 -4.57692997906482 
                0.997931760733661 -4.5781630343006 0.00556529895225604 -96.7302397439263 0.00434456079951019 74.9638032470922 0.0157533774437838 84.1232457298159 
                0.00556526156768794 -96.7405045163961 0.997935328559014 -4.57692997913501 0.0157533774624566 84.12324650775   0.00441644360172378 75.1070609390807 

0.26             0.00467270927239209 80.1246703302564 0.0170513116399076 83.810648027048  0.997788887980469 -4.95437109522608 0.00602383371277949 -97.1434733170486 
                0.0170513115112826 83.8106434514905 0.00475074235713476 80.288234065254  0.00602388862834719 -97.1323252603591 0.99779265435674 -4.9530483722428 
                0.997788887919672 -4.95437109461661 0.00602388852956381 -97.1323309106641 0.00468539104485154 74.7778567292044 0.0170473009011547 83.7477780525235 
                0.00602383381117035 -97.1434676820903 0.997792654416759 -4.95304837284485 0.0170473009410766 83.7477785754236 0.00476349563745337 74.9134091517275 

0.28             0.00501357906709066 80.2935991359105 0.0183443958790815 83.4377691775114 0.997645249745336 -5.33028095668267 0.0064820763766574 -97.5535580113498 
                0.0183443956611959 83.4377661295074 0.00509783836690385 80.4523760590798 0.0064821491648071 -97.5415590414759 0.997649205662307 -5.32886880970012 
                0.997645249702237 -5.33028095587169 0.00648214903522131 -97.5415627528482 0.00502643658113418 74.5383733089808 0.0183394120260788 83.3700812985716 
                0.00648207650565486 -97.5535543080483 0.997649205704863 -5.32886881049046 0.0183394120717739 83.3700816346835 0.00511072956150153 74.6670517727798 

0.3              0.00535485400650336 80.417466017896  0.0196358436084026 83.0629956880394 0.997500643262763 -5.70591373897751 0.00693997403136931 -97.9695661971693 
                0.0196358433852094 83.062993736018  0.00544530307404262 80.5721199580673 0.00694006566257718 -97.9567189978153 0.997504782015351 -5.70441253440675 
                0.99750064323374 -5.70591373818835 0.00694006553971137 -97.9567213398386 0.00536764234565726 74.2545239318547 0.019629716154133 82.9905459304268 
                0.00693997415368656 -97.9695638585192 0.997504782044081 -5.70441253516918 0.01962971619637 82.9905461359383 0.0054581046862062 74.3771067548191 

0.32             0.00569644284558127 80.5022972847617 0.0209256448143347 82.6866395024109 0.99735490930039 -6.08128701875371 0.0073975075171254 -98.3905541811669 
                0.020925644632234 82.6866383028553 0.00579306039955463 80.6535519539398 0.00739761978617769 -98.3768565688056 0.997359224774911 -6.07969721585206 
                0.997354909281914 -6.08128701811   0.00739761968956134 -98.3768579907557 0.00570897800349435 73.9332374734209 0.0209182048850933 82.6094766532228 
                0.0073975076133386 -98.3905527599303 0.997359224793316 -6.07969721646864 0.020918204919103 82.609476771068  0.00580560084029564 74.0503933765397 

0.34             0.00603824583215081 80.5532292127664 0.0222137838474776 82.3089576979491 0.997207921382769 -6.45641576837691 0.00785465532623883 -98.8157640191267 
                0.0222137837267895 82.3089569942713 0.00614102393687064 80.7017478507834 0.00785479077328195 -98.8012133825135 0.997212407128516 -6.45473787157193 
                0.997207921371767 -6.45641576793249 0.00785479071017519 -98.8012142148988 0.00605041682715512 73.5798373223574 0.0222048599493717 82.2271185469585 
                0.00785465538910809 -98.8157631861951 0.997212407139624 -6.45473787199301 0.0222048599733499 82.2271186083401 0.00615319712588269 73.6921228476039 

0.36             0.00638016498035103 80.5746256733778 0.0235002411953808 81.9301621297238 0.99705957714486 -6.83131295858676 0.00831139457951698 -99.244576979201 
                0.0235002411397007 81.9301617391877 0.00648910473954436 80.720966800088  0.00831155630523635 -99.2291721015987 0.99706422608051 -6.82954747479726 
                0.997059577138842 -6.8313129583496 0.00831155627528197 -99.2291725747623 0.00639192620056935 73.1985187076007 0.0234896560757781 81.8436724867962 
                0.00831139460937797 -99.2445765050758 0.997064226086757 -6.8295474750174 0.0234896560897421 81.8436725135139 0.00650086345117584 73.3063962907769 

0.38             0.00672210778822152 80.5701803325209 0.0247849944300485 81.5504275449051 0.996909791923872 -7.20598994982318 0.00876770169365791 -99.6764817228413 
                0.0247849944332155 81.5504273426701 0.00683721493798356 80.7147960261188 0.00876789316940631 -99.6602231429722 0.996914596395972 -7.20413735872716 
                0.996909791920936 -7.20598994977357 0.00876789316805673 -99.6602234097178 0.00673346514320145 72.7926781595844 0.0247725629708435 81.459305045378  
                0.0087677016950185 -99.6764814551663 0.996914596399205 -7.20413735876691 0.0247725629758347 81.4593050521311 0.0068485592558503 72.8965381662467 

0.4              0.00706398758720246 80.5430143605619 0.0260680187135448 81.1698984152682 0.996758494236566 -7.58045675590992 0.00922355279863105 -100.111051579448 
                0.0260680187645034 81.1698983195507 0.00718526903428496 80.6862675374047 0.00922377771608835 -100.093941280392 0.996763446229117 -7.57851749354093 
                0.99675849423534 -7.58045675601446 0.00922377773695388 -100.093941436892 0.00707498531211184 72.3651321244047 0.026053546634376 81.0741554189396 
                0.0092235527778384 -100.11105142224 0.996763446230661 -7.57851749343379 0.0260535466319196 81.0741554152773 0.00719623549955683 72.465311984771  

0.42             0.00740572249532104 80.495767934088  0.0273492870788032 80.7886946313067 0.996605622695344 -7.95472223258793 0.0096789239743588 -100.54792768383 
                0.027349287164806 80.7886945910667 0.00753318406281385 80.6379547517042 0.00967918614629417 -100.529968572373 0.996610714068333 -7.9526966855208 
                0.996605622694897 -7.95472223280752 0.00967918618264117 -100.529968675335 0.00741643327928253 71.918260385837  0.0273325702219868 80.6883406116222 
                0.00967892393811266 -100.54792758041 0.996610714069082 -7.95269668530497 0.0273325702137487 80.6883406034803 0.0075438376201226 72.0150589569807 

0.44             0.00774723403735183 80.4306822189014 0.0286287706054254 80.4069161919657 0.996451123951346 -8.32879422218219 0.0101337913677674 -100.986806076779 
                0.0286287707140017 80.4069161773321 0.00788087929235432 80.5720526497838 0.0101340946750137 -100.968001486853 0.99645634664538 -8.32668272885426 
                0.996451123951101 -8.32879422247865 0.0101340947206413 -100.968001566687 0.00775775291209868 71.4541012437962 0.0286095946155265 80.3019594908615 
                0.0101337913222439 -100.9868059967  0.996456346645885 -8.32668272856694 0.0286095946031106 80.3019594817125 0.00789130832279252 71.5477886957634 

0.46             0.00808844592158925 80.349669960108  0.0299064385539058 80.0246470270043 0.996294951333227 -8.70267967217659 0.0105881312373243 -101.427427612907 
                0.029906438673971 80.0246470221497 0.00822827581543781 80.4904438482428 0.0105884796107871 -101.40778092694 0.996300297515984 -8.70048252826864 
                0.99629495133287 -8.70267967251533 0.010588479660473 -101.407780997369 0.00809888734171017 70.9744166765687 0.0298845788124554 79.9150960374895 
                0.0105881311877308 -101.427427542374 0.996300297516537 -8.70048252794288 0.0298845787972952 79.9150960291772 0.00823858975615459 71.0652409126439 

0.48             0.00842928314120811 80.2543744464958 0.031182258489481 79.6419580859921 0.996137063935786 -9.07638473730166 0.0110419199583165 -101.869569940532 
                0.0311822586118589 79.6419580840072 0.00857529617851705 80.3947526670191 0.0110423173840532 -101.849084346676 0.996142526088286 -9.07410220284795 
                0.996137063935199 -9.07638473765411 0.011042317433718 -101.849084411494 0.00843978037248531 70.480739034368  0.0311574802058794 79.5278219801069 
                0.0110419199087253 -101.86956987569 0.996142526089   -9.0741022025111 0.0311574801891893 79.5278219734352 0.00858562499759716 70.5689297086404 

0.5              0.00876967140778658 80.1462177204479 0.032456196408804 79.2589098181867 0.995977425986788 -9.44991487004211 0.0114951340106257 -102.313041061865 
                0.0324561965263752 79.2589098175027 0.00892186410492695 80.2863891242338 0.011495584547774 -102.291719429588 0.995982996938476 -9.44754717671498 
                0.99597742598598 -9.44991487038553 0.0114955845944713 -102.291719487215 0.00878037736655672 69.9744062676342 0.0324282547994326 79.1401989393872 
                0.0114951339639822 -102.313041004235 0.995982996939338 -9.44754717638867 0.0324282547821971 79.1401989345251 0.00893235893717651 70.060177270713  

0.52             0.00910953685783946 80.026439448734  0.0337282168729717 78.8755541536973 0.995816006378113 -9.82327490194582 0.011947749962176 -102.757674127242 
                0.0337282169805924 78.8755541556599 0.00926790431365943 80.1665846214317 0.0119482577660714 -102.735518971538 0.995821679303735 -9.82082225960176 
                0.995816006377178 -9.82327490226382 0.0119482578078817 -102.735519017991 0.00912062570838982 69.4565898123279 0.033696857383036 78.7522801750284 
                0.0119477499204025 -102.757674080776 0.995821679304656 -9.82082225930102 0.0336968573660177 78.752280171783  0.00927873870321721 69.5401408537462 

0.54             0.00944880595583664 79.8961280191245 0.034998283145716 78.4919360810089 0.995652778289646 -10.1964691168525 0.0123997444552206 -103.203323208523 
                0.0349982832400158 78.4919360882947 0.00961334241741846 80.0364208682386 0.0124003138005729 -103.180336712619 0.995658546680944 -10.193931718897 
                0.995652778288722 -10.1964691171343 0.0124003138364475 -103.180336743341 0.00946047496774852 68.9283175162719 0.0349632416842961 78.3641120086189 
                0.0123997444193712 -103.20332317776 0.995658546681791 -10.1939317186318 0.0349632416680615 78.3641120066146 0.0096247137723539 69.0098352185467 

0.56             0.00978740552301539 79.7562453485656 0.0362663573336132 78.1080949008371 0.995487718863452 -10.5695013166123 0.0128510941986939 -103.649859857065 
                0.0362663574127293 78.1080949164563 0.00995810487817362 79.8968533614001 0.0128517294997721 -103.626043928375 0.995493576486844 -10.5668793440654 
                0.995487718862695 -10.5695013168519 0.0128517295293614 -103.626043939278 0.00979987686624398 68.3904929825487 0.0362273605035692 77.9757349822418 
                0.0128510941691235 -103.649859846088 0.995493576487471 -10.566879343841 0.0362273604885132 77.9757349810346 0.00997023588324473 68.4701517399262 

0.58             0.0101252628356717 79.607646701935  0.0375324005247552 77.7240652223403 0.995320808905031 -10.9423748796862 0.0133017759674768 -104.097170294042 
                0.0375324005880538 77.7240652490529 0.0103021190002132 79.7487305052865 0.0133024817938274 -104.072526634447 0.99532674975392 -10.9396685040207 
                0.995320808904593 -10.9423748798818 0.0133024818173169 -104.072526622449 0.0101387851303282 67.8439121412585 0.0374891658368662 77.58718480219   
                0.0133017759440042 -104.097170305943 0.995326749754184 -10.9396685038387 0.0374891658232415 77.5871848013363 0.0103152588437983 67.921874884046  

0.6              0.0104623057523849 79.4510966004284 0.0387963729227066 77.3398777554678 0.995152032600474 -11.3150928130119 0.0137517666080485 -104.545153111932 
                0.0387963729705103 77.3398777954717 0.0106453129446473 79.5928092552996 0.0137525476953557 -104.519683289548 0.995158050848277 -11.3123021979406 
                0.995152032600494 -11.3150928131646 0.0137525477133138 -104.519683252763 0.0104771552906203 67.2892775538494 0.0387486089887111 77.1984931084869 
                0.0137517665901101 -104.545153148611 0.995158050848052 -11.3123021977993 0.0387486089766516 77.1984931075842 0.0106597382944852 67.3656964873675 

0.62             0.0107984628434518 79.287281685847  0.040058233973248 76.9555599426963 0.994981377245402 -11.6876577975755 0.0142010430493836 -104.993717389873 
                0.0400582340065937 76.9555599974994 0.0109876157536951 79.4297679891643 0.0142019043057415 -104.967422904432 0.994987467203184 -11.6847831000051 
                0.994981377245996 -11.687657797689 0.0142019043189891 -104.967422842166 0.0108149444676762 66.7272107911628 0.0400056406760083 76.8096881035918 
                0.0142010430361604 -104.993717452042 0.994987467202364 -11.6847830999009 0.0400056406655559 76.809688102298  0.0110036314679965 66.8022281354233 

0.64             0.0111336635067081 79.1168212203342 0.0413179424822022 76.5711364646548 0.994808832985328 -12.0600722281899 0.0146495823177067 -105.442781144335 
                0.0413179425026236 76.5711365350556 0.0113289573769872 79.2602171647885 0.0146505288259559 -105.415663482068 0.994814989066173 -12.0571135985585 
                0.994808832986581 -12.0600722282695 0.0146505288354612 -105.415663394694 0.0111521111689649 66.1582631408104 0.0412602111235112 76.4207950674722 
                0.014649582308232 -105.442781231634 0.994814989064681 -12.057113598486 0.0412602111146349 76.4207950655143 0.0113468969688737 66.2320118736813 

0.66             0.0114678380617435 78.9402757461454 0.0425754567233339 76.1866296469057 0.994634392568798 -12.4323382480252 0.0150973615537702 -105.892270051557 
                0.0425754567326836 76.1866297330446 0.0116692686950781 79.084708204955  0.0150983985707068 -105.864330728094 0.994640609259762 -12.4292958302195 
                0.994634392570769 -12.4323382480772 0.0150983985774975 -105.864330616881 0.011488615110426 65.5829248526895 0.0425122701513058 76.0318367810561 
                0.0150973615470155 -105.892270162734 0.99464060925755 -12.4292958301723 0.0425122701439219 76.0318367782306 0.0116894945848372 65.65552944838   

0.68             0.0118009178198798 78.7581543062444 0.0438307345359356 75.8020597893227 0.994458051115167 -12.8044577784557 0.0155443580314821 -106.342116390367 
                0.0438307345362345 75.802059890767  0.0120084815376805 78.9037409551116 0.0155454909847628 -106.313356981853 0.994464322956724 -12.8013317094755 
                0.994458051117884 -12.804457778487 0.0155454909898612 -106.313356848763 0.0118244170683752 65.0016331042393 0.0437617672547001 75.642833875791  
                0.0155443580264241 -106.34211652347 0.994464322953769 -12.8013317094471 0.0437617672486836 75.6428338719593 0.0120313851338984 65.0732102552399 

0.7              0.0121328351306602 78.570920530204  0.0450837334121596 75.4174454348129 0.994279805898628 -13.1764325447844 0.0159905491769216 -106.792258163823 
                0.0450837334054785 75.4174455506585 0.0123465286955815 78.7177699861535 0.0159917836604246 -106.762680327436 0.994286127470999 -13.1732229542839 
                0.994279805902095 -13.1764325448023 0.0159917836647962 -106.762680174937 0.0121594787625063 64.4147788476629 0.0450086516769205 75.2538051235347 
                0.0159905491725915 -106.792258316391 0.994286127467304 -13.1732229542673 0.0450086516721214 75.2538051186166 0.0123725303464271 64.4854381587541 

0.72             0.0124635234074367 78.3789978161802 0.0463344105745157 75.0328035904234 0.994099656149663 -13.5482640983823 0.0164359125870158 -107.242638366109 
                0.0463344105628839 75.0328037193979 0.0126833439262519 78.5272099564082 0.0164372543553037 -107.212243851672 0.994106022065059 -13.5449711081842 
                0.994099656153857 -13.5482640983933 0.0164372543598247 -107.212243682564 0.0124937627678233 63.8227126856289 0.0462528724750847 74.8647676781658 
                0.0164359125825343 -107.24263853535 0.994106022060651 -13.5449711081729 0.0462528724713358 74.8647676721324 0.0127128927786831 63.8925573305927 

0.74             0.0127929171355519 78.1827737841492 0.0475827230441713 74.6481499109427 0.993917602874435 -13.9199538357391 0.0168804260473435 -107.693204367646 
                0.0475827230295074 74.6481500515039 0.0130188619537213 78.3324402019288 0.0168818810097583 -107.661995022137 0.993924007774147 -13.9165775593928 
                0.993917602879315 -13.9199538357496 0.016881881015193 -107.661994839395 0.0128272324517645 63.2257499072695 0.0474943785799219 74.4757372780155 
                0.0168804260419427 -107.693204550584 0.993924007769068 -13.9165775593808 0.0474943785770484 74.4757372708809 0.0130524357531245 63.2948772419727 

0.76             0.0131209518668654 77.9826041341384 0.0488286277008274 74.2634988528259 0.993733648692099 -14.2915030148836 0.0173240675487267 -108.14390739656 
                0.0488286276848918 74.2634990032511 0.0133530184636036 78.1338086891178 0.0173256417635106 -108.111885163301 0.993740087247324 -14.2880435573078 
                0.993733648697607 -14.2915030148993 0.0173256417704998 -108.111884969954 0.0131598519322707 62.6241748023227 0.0487331188497478 74.0867284163927 
                0.0173240675417623 -108.143907590165 0.993740087241637 -14.2880435572896 0.0487331188475747 74.0867284082066 0.0133911233203683 62.6926769304277 

0.78             0.0134475642041529 77.7788160121925 0.0500720813350194 73.8788638044933 0.993547797689503 -14.6629127695722 0.0177668153023995 -108.594702098977 
                0.0500720813193766 73.878863962956  0.0136857500942787 77.9316354368277 0.0177685149711368 -108.561869013066 0.993554264604912 -14.659370226809 
                0.993547797695566 -14.6629127695981 0.0177685149801885 -108.56186881209 0.0134915860524517 62.0182443575511 0.0499690421191981 73.6977544860257 
                0.0177668152933593 -108.594702300264 0.993554264598687 -14.65937022678  0.049969042117553 73.6977544768663 0.0137289202380459 62.0862086476638 

0.8              0.0137726917785437 77.5717109639834 0.0513130406936835 73.4942571976778 0.993360055292365 -15.0341841216044 0.01820864775368 -109.045546163947 
                0.0513130406796866 73.494257362314  0.0140169944251904 77.7262154937044 0.0182104792162338 -109.011904345286 0.993366545311487 -15.0305585806899 
                0.993360055298903 -15.0341841216445 0.0182104792277294 -109.011904139533 0.0138224003679497 61.4081914267814 0.0512020972432001 73.3088279020739 
                0.0182086477421795 -109.045546370058 0.993366545304809 -15.0305585806461 0.0512020972419199 73.3088278920406 0.0140657919621541 61.4757009815427 

0.82             0.0140962732226562 77.3615675389082 0.0525514625198264 73.1096906034411 0.993170428151778 -15.4053179915663 0.0186495435941264 -109.496400001635 
                0.0525514625086057 73.1096907724008 0.0143466899632219 77.5178215402655 0.0186515133241932 -109.461951646632 0.99317693606346 -15.4016095305204 
                0.993170428158702 -15.4053179916237 0.0186515133383899 -109.461951438768 0.0141522611435046 60.794227453682  0.0524322331366584 72.9199602074573 
                0.0186495435799057 -109.496400209895 0.993176936056414 -15.4016095304591 0.0524322331355924 72.9199601966667 0.0144017046473187 60.8613615328516 

0.84             0.0144182481415959 77.1486435949433 0.0537873035870735 72.7251748156604 0.992978924044673 -15.7763152082641 0.0190894817722426 -109.947226465553 
                0.0537873035795346 72.7251749871516 0.0146747761278789 77.3067061722729 0.0190915963735641 -109.911973838348 0.992985444689984 -15.772523896189 
                0.992978924051891 -15.7763152083412 0.0190915963906018 -109.911973630812 0.0144811353559122 60.176544815542  0.0536593988102869 72.5311621635171 
                0.0190894817551592 -109.947226673509 0.992985444682661 -15.7725238961078 0.0536593988092977 72.5311621520966 0.0147366251529128 60.2433792158623 

0.86             0.0147385570834857 76.933178344928  0.0550205207298027 72.3407199241746 0.992785551786854 -16.1471765170668 0.0195284415028343 -110.397990611419 
                0.0550205207266335 72.3407200964959 0.0150011932359964 77.0931039117317 0.0195307077060597 -110.361936035257 0.992792080065962 -16.1433024143392 
                0.992785551794275 -16.1471765171651 0.0195307077259744 -110.36193583024 0.0148089907010372 59.5553188462117 0.0548835434029854 72.1424438284405 
                0.019528441482851 -110.397990816872 0.992792080058455 -16.1433024142369 0.0548835434019527 72.142443816524  0.0150705210527293 59.6219262415051 

0.88             0.0150571415107512 76.7153941778228 0.0562510708695137 71.9563353792974 0.992590321157158 -16.517902587339 0.0199664022751248 -110.848659486639 
                0.0562510708711921 71.9563355508616 0.0153258824864545 76.8772329838933 0.0199688269353001 -110.81180533583 0.992596852035826 -16.5139457458832 
                0.992590321164689 -16.5179025874592 0.0199688269580321 -110.811805135258 0.0151357956030944 58.9307095877626 0.0561046162111375 71.7538146254309 
                0.0199664022523001 -110.848659687651 0.992596852028223 -16.5139457457592 0.0561046162099567 71.7538146131554 0.0154033606463959 58.997159832899  
