! TOUCHSTONE file generated by CST DESIGN STUDIO
! Date and time: Fri Sep 25 15:58:13 2020
! Project name: D:\ø∆—–π§◊˜\mst-visit\CST\Twinax line-Spara1G.cst
! Tree item: Tasks\SPara1\S-Parameters
# MHZ S MA R 50
0                    0.000415461         8.31643         0.999589     -0.00550995     5.12707e-005         75.4442     4.54078e-005        -106.485  
                        0.999589     -0.00551008      0.000415461         8.31612     4.54152e-005        -106.485     5.12633e-005         75.4442  
                     0.000125834         116.586      8.4355e-005         166.733      0.000315563         45.6449         0.999398      0.00398241  
                    8.43623e-005         166.726      0.000125855         116.602         0.999398      0.00398117      0.000315536         45.6701  
1                     0.00978949         72.0832         0.997351        -2.60398       0.00764211         84.0263       0.00164755        -110.502  
                        0.997351        -2.60399       0.00978948         72.0832       0.00164755        -110.501       0.00764211         84.0262  
                      0.00764131         84.0423       0.00164889        -110.567       0.00977683         72.2501          0.99732        -2.60425  
                      0.00164891        -110.567       0.00764123         84.0423          0.99732        -2.60426       0.00977694         72.2495  
2                      0.0176165         73.3173         0.996242        -5.11539        0.0150208         82.3165       0.00302249        -112.076  
                        0.996242         -5.1154        0.0176165         73.3173       0.00302247        -112.077        0.0150208         82.3165  
                       0.0150191         82.3123       0.00302379        -112.048        0.0176196         73.3251         0.996241        -5.11518  
                      0.00302381        -112.048        0.0150191         82.3121          0.99624        -5.11518        0.0176198         73.3252  
3                      0.0253317         72.9681         0.995374          -7.623        0.0222741         80.1546       0.00431077        -115.404  
                        0.995374          -7.623        0.0253317         72.9681       0.00431076        -115.404        0.0222741         80.1546  
                       0.0222738         80.1519       0.00431071        -115.389         0.025329         72.9789         0.995369         -7.6231  
                      0.00431071        -115.389        0.0222739         80.1519         0.995369         -7.6231        0.0253292         72.9787  
4                      0.0329837         71.6529         0.994443        -10.1277        0.0294418         77.8783       0.00556016        -119.143  
                        0.994443        -10.1277        0.0329837         71.6529       0.00556018        -119.143        0.0294418         77.8782  
                       0.0294417         77.8781       0.00556019        -119.142        0.0329827         71.6572          0.99444        -10.1277  
                      0.00556018        -119.143        0.0294418         77.8781          0.99444        -10.1277        0.0329826         71.6572  
5                      0.0405047         69.8493         0.993406        -12.6261         0.036526         75.5328       0.00678741        -123.166  
                        0.993406        -12.6261        0.0405047         69.8493       0.00678742        -123.166         0.036526         75.5328  
                       0.0365261         75.5329       0.00678739        -123.167        0.0405056         69.8483         0.993406        -12.6261  
                      0.00678738        -123.167        0.0365261          75.533         0.993406        -12.6261        0.0405054         69.8484  
6                      0.0478541         67.8016         0.992274        -15.1169        0.0435142         73.1437       0.00799445        -127.398  
                        0.992274        -15.1169        0.0478541         67.8016       0.00799445        -127.398        0.0435142         73.1437  
                       0.0435141          73.144       0.00799455        -127.399        0.0478548         67.8021         0.992273        -15.1168  
                      0.00799456        -127.399        0.0435141         73.1439         0.992273        -15.1168        0.0478548         67.8022  
7                      0.0550131         65.6312          0.99107        -17.5994        0.0503914         70.7285       0.00917924        -131.776  
                         0.99107        -17.5994        0.0550131         65.6312       0.00917924        -131.776        0.0503914         70.7285  
                       0.0503913         70.7281       0.00917916        -131.774        0.0550128         65.6315         0.991069        -17.5994  
                      0.00917916        -131.774        0.0503914         70.7281         0.991069        -17.5994        0.0550128         65.6316  
8                      0.0619743         63.3995         0.989813         -20.074         0.057143          68.299        0.0103394        -136.256  
                        0.989813         -20.074        0.0619743         63.3995        0.0103394        -136.256         0.057143          68.299  
                        0.057143         68.2989        0.0103394        -136.255        0.0619745         63.3991         0.989813        -20.0739  
                       0.0103394        -136.256         0.057143         68.2989         0.989813        -20.0739        0.0619744         63.3991  
9                      0.0687357         61.1378         0.988519        -22.5409        0.0637554         65.8628        0.0114727        -140.805  
                        0.988519        -22.5409        0.0687357         61.1378        0.0114727        -140.805        0.0637554         65.8628  
                       0.0637555         65.8627        0.0114726        -140.805        0.0687355         61.1372          0.98852        -22.5409  
                       0.0114726        -140.805        0.0637555         65.8627          0.98852        -22.5409        0.0687356         61.1372  
10                     0.0752969         58.8622         0.987199        -25.0006         0.070216         63.4253        0.0125772        -145.403  
                        0.987199        -25.0006        0.0752969         58.8622        0.0125772        -145.403         0.070216         63.4253  
                       0.0702159         63.4253        0.0125773        -145.403        0.0752971         58.8621         0.987199        -25.0006  
                       0.0125773        -145.403        0.0702159         63.4253         0.987199        -25.0006        0.0752972         58.8622  
11                     0.0816573         56.5807         0.985861        -27.4535         0.076513         60.9897        0.0136512        -150.034  
                        0.985861        -27.4535        0.0816573         56.5807        0.0136512        -150.034         0.076513         60.9897  
                       0.0765131         60.9897        0.0136512        -150.034        0.0816573         56.5807         0.985861        -27.4535  
                       0.0136512        -150.034        0.0765131         60.9897         0.985861        -27.4535        0.0816573         56.5807  
12                     0.0878154         54.2974         0.984512        -29.8999        0.0826358         58.5587        0.0146931        -154.689  
                        0.984512        -29.8999        0.0878154         54.2974        0.0146931        -154.689        0.0826358         58.5587  
                       0.0826358         58.5587        0.0146931        -154.689        0.0878153         54.2974         0.984512        -29.8999  
                       0.0146931        -154.689        0.0826358         58.5587         0.984512        -29.8999        0.0878154         54.2974  
13                     0.0937685         52.0144         0.983156          -32.34        0.0885741          56.134        0.0157016         -159.36  
                        0.983156          -32.34        0.0937685         52.0144        0.0157016         -159.36        0.0885741          56.134  
                       0.0885741          56.134        0.0157016         -159.36        0.0937686         52.0146         0.983155          -32.34  
                       0.0157016         -159.36        0.0885741          56.134         0.983155          -32.34        0.0937685         52.0146  
14                     0.0995132         49.7328         0.981798        -34.7742        0.0943189         53.7168        0.0166751        -164.042  
                        0.981798        -34.7742        0.0995132         49.7328        0.0166751        -164.042        0.0943189         53.7168  
                       0.0943189         53.7168        0.0166751        -164.042        0.0995133         49.7327         0.981798        -34.7742  
                       0.0166751        -164.042        0.0943189         53.7168         0.981798        -34.7742        0.0995134         49.7327  
15                      0.105045         47.4533         0.980444        -37.2024        0.0998618         51.3082        0.0176127         -168.73  
                        0.980444        -37.2024         0.105045         47.4533        0.0176127         -168.73        0.0998618         51.3082  
                       0.0998618         51.3082        0.0176127         -168.73         0.105045         47.4533         0.980444        -37.2024  
                       0.0176127         -168.73        0.0998618         51.3082         0.980444        -37.2024         0.105045         47.4533  
16                       0.11036         45.1763         0.979097        -39.6248         0.105195         48.9087         0.018513        -173.422  
                        0.979097        -39.6248          0.11036         45.1763         0.018513        -173.422         0.105195         48.9087  
                        0.105195         48.9087         0.018513        -173.422          0.11036         45.1763         0.979097        -39.6248  
                        0.018513        -173.422         0.105195         48.9087         0.979097        -39.6248          0.11036         45.1763  
17                      0.115453         42.9021         0.977764        -42.0416         0.110312          46.519        0.0193752        -178.116  
                        0.977764        -42.0416         0.115453         42.9021        0.0193752        -178.116         0.110312          46.519  
                        0.110312          46.519        0.0193752        -178.116         0.115453         42.9021         0.977764        -42.0416  
                       0.0193752        -178.116         0.110312          46.519         0.977764        -42.0416         0.115453         42.9021  
18                      0.120319         40.6311         0.976449        -44.4528         0.115207         44.1392        0.0201982         177.191  
                        0.976449        -44.4528         0.120319         40.6311        0.0201983         177.191         0.115207         44.1392  
                        0.115207         44.1392        0.0201983         177.191         0.120319         40.6312         0.976449        -44.4528  
                       0.0201983         177.191         0.115207         44.1392         0.976449        -44.4528         0.120319         40.6312  
19                      0.124954         38.3636         0.975157        -46.8585         0.119874         41.7696        0.0209814           172.5  
                        0.975157        -46.8585         0.124954         38.3636        0.0209814           172.5         0.119874         41.7696  
                        0.119874         41.7696        0.0209814           172.5         0.124954         38.3636         0.975157        -46.8585  
                       0.0209814           172.5         0.119874         41.7696         0.975157        -46.8585         0.124954         38.3636  
20                      0.129354         36.0999         0.973894         -49.259         0.124309         39.4101         0.021724         167.812  
                        0.973894         -49.259         0.129354         36.0999        0.0217241         167.812         0.124309         39.4101  
                        0.124309         39.4102        0.0217241         167.812         0.129354         36.0999         0.973894         -49.259  
                       0.0217241         167.812         0.124309         39.4101         0.973894         -49.259         0.129353         36.0999  
21                      0.133514         33.8401         0.972666        -51.6543         0.128507         37.0608        0.0224255         163.128  
                        0.972666        -51.6543         0.133514         33.8401        0.0224255         163.128         0.128507         37.0608  
                        0.128507         37.0608        0.0224255         163.128         0.133514           33.84         0.972666        -51.6543  
                       0.0224255         163.128         0.128507         37.0608         0.972666        -51.6543         0.133514           33.84  
22                      0.137431         31.5844         0.971478        -54.0446         0.132465         34.7215        0.0230852         158.448  
                        0.971478        -54.0446         0.137431         31.5844        0.0230852         158.448         0.132465         34.7215  
                        0.132465         34.7215        0.0230852         158.448         0.137432         31.5845         0.971477        -54.0446  
                       0.0230852         158.448         0.132465         34.7215         0.971477        -54.0446         0.137431         31.5845  
23                      0.141103          29.333         0.970334        -56.4301         0.136181         32.3918        0.0237028         153.773  
                        0.970334        -56.4301         0.141103          29.333        0.0237028         153.773         0.136181         32.3918  
                        0.136181         32.3918        0.0237028         153.773         0.141103         29.3329         0.970334        -56.4301  
                       0.0237028         153.773         0.136181         32.3918         0.970334        -56.4301         0.141103          29.333  
24                      0.144527         27.0858          0.96924        -58.8111         0.139651         30.0715         0.024278         149.103  
                         0.96924        -58.8111         0.144527         27.0858         0.024278         149.103         0.139651         30.0715  
                        0.139651         30.0715         0.024278         149.103         0.144527         27.0858          0.96924        -58.8111  
                        0.024278         149.103         0.139651         30.0715          0.96924        -58.8111         0.144527         27.0858  
25                      0.147699         24.8427         0.968201        -61.1878         0.142873         27.7602        0.0248104         144.437  
                        0.968201        -61.1878         0.147699         24.8427        0.0248104         144.437         0.142873         27.7602  
                        0.142873         27.7602        0.0248104         144.437         0.147699         24.8428         0.968201        -61.1878  
                       0.0248104         144.437         0.142873         27.7602         0.968201        -61.1878         0.147699         24.8428  
26                      0.150619         22.6038         0.967222        -63.5603         0.145846         25.4574        0.0252998         139.777  
                        0.967222        -63.5603         0.150619         22.6038        0.0252998         139.777         0.145846         25.4574  
                        0.145846         25.4574        0.0252998         139.777         0.150619         22.6038         0.967222        -63.5603  
                       0.0252998         139.777         0.145846         25.4574         0.967222        -63.5603         0.150619         22.6038  
27                      0.153285         20.3688         0.966306        -65.9291         0.148568         23.1625         0.025746         135.122  
                        0.966306        -65.9291         0.153285         20.3688         0.025746         135.122         0.148568         23.1625  
                        0.148568         23.1625         0.025746         135.122         0.153285         20.3688         0.966306        -65.9291  
                        0.025746         135.122         0.148568         23.1625         0.966306        -65.9291         0.153285         20.3688  
28                      0.155695         18.1374         0.965457        -68.2944         0.151039          20.875        0.0261489         130.471  
                        0.965457        -68.2944         0.155695         18.1374        0.0261489         130.471         0.151039          20.875  
                        0.151039          20.875        0.0261489         130.471         0.155695         18.1374         0.965457        -68.2944  
                       0.0261489         130.471         0.151039          20.875         0.965457        -68.2944         0.155695         18.1374  
29                      0.157848         15.9094          0.96468        -70.6566         0.153256         18.5943        0.0265084         125.824  
                         0.96468        -70.6566         0.157848         15.9094        0.0265084         125.824         0.153256         18.5943  
                        0.153256         18.5943        0.0265084         125.824         0.157848         15.9094          0.96468        -70.6566  
                       0.0265084         125.824         0.153256         18.5943          0.96468        -70.6566         0.157848         15.9094  
30                      0.159744         13.6844         0.963976        -73.0159         0.155221         16.3197        0.0268244         121.181  
                        0.963976        -73.0159         0.159744         13.6844        0.0268244         121.181         0.155221         16.3197  
                        0.155221         16.3197        0.0268244         121.181         0.159744         13.6844         0.963976        -73.0159  
                       0.0268244         121.181         0.155221         16.3197         0.963976        -73.0159         0.159744         13.6844  
31                      0.161382          11.462          0.96335        -75.3727         0.156931         14.0505        0.0270969         116.542  
                         0.96335        -75.3727         0.161382          11.462        0.0270969         116.542         0.156931         14.0505  
                        0.156931         14.0505        0.0270969         116.542         0.161382         11.4619          0.96335        -75.3727  
                       0.0270969         116.542         0.156931         14.0505          0.96335        -75.3727         0.161382         11.4619  
32                      0.162761         9.24168         0.962803        -77.7273         0.158386         11.7861        0.0273258         111.905  
                        0.962803        -77.7273         0.162761         9.24168        0.0273258         111.905         0.158386         11.7861  
                        0.158386         11.7861        0.0273258         111.905         0.162761         9.24168         0.962803        -77.7273  
                       0.0273258         111.905         0.158386         11.7861         0.962803        -77.7273         0.162761         9.24169  
33                      0.163881         7.02307         0.962337        -80.0801         0.159587         9.52559        0.0275112         107.271  
                        0.962337        -80.0801         0.163881         7.02307        0.0275112         107.271         0.159587         9.52559  
                        0.159587         9.52559        0.0275112         107.271         0.163881         7.02308         0.962337        -80.0801  
                       0.0275112         107.271         0.159587         9.52559         0.962337        -80.0801         0.163881         7.02308  
34                      0.164742         4.80558         0.961954        -82.4316         0.160532         7.26834        0.0276531         102.638  
                        0.961954        -82.4316         0.164742         4.80558        0.0276531         102.638         0.160532         7.26834  
                        0.160532         7.26834        0.0276531         102.638         0.164742         4.80557         0.961954        -82.4316  
                       0.0276531         102.638         0.160532         7.26834         0.961954        -82.4316         0.164742         4.80558  
35                      0.165344         2.58866         0.961656         -84.782         0.161222         5.01355        0.0277515         98.0066  
                        0.961656         -84.782         0.165344         2.58866        0.0277515         98.0066         0.161222         5.01355  
                        0.161222         5.01355        0.0277515         98.0066         0.165344         2.58866         0.961656         -84.782  
                       0.0277515         98.0066         0.161222         5.01355         0.961656         -84.782         0.165344         2.58866  
36                      0.165686        0.371739         0.961442        -87.1317         0.161656         2.76045        0.0278063         93.3757  
                        0.961442        -87.1317         0.165686        0.371739        0.0278063         93.3757         0.161656         2.76045  
                        0.161656         2.76045        0.0278063         93.3757         0.165686        0.371738         0.961442        -87.1317  
                       0.0278063         93.3757         0.161656         2.76045         0.961442        -87.1317         0.165686        0.371746  
37                      0.165769        -1.84578         0.961314        -89.4811         0.161834         0.50826        0.0278177         88.7447  
                        0.961314        -89.4811         0.165769        -1.84578        0.0278177         88.7447         0.161834         0.50826  
                        0.161834         0.50826        0.0278177         88.7447         0.165769        -1.84578         0.961314        -89.4811  
                       0.0278177         88.7447         0.161834        0.508259         0.961314        -89.4811         0.165769        -1.84578  
38                      0.165592         -4.0645         0.961271        -91.8306         0.161756        -1.74378        0.0277856          84.113  
                        0.961271        -91.8306         0.165592         -4.0645        0.0277856          84.113         0.161756        -1.74378  
                        0.161756        -1.74378        0.0277856          84.113         0.165592        -4.06449         0.961271        -91.8306  
                       0.0277856          84.113         0.161756        -1.74378         0.961271        -91.8306         0.165592        -4.06449  
39                      0.165155        -6.28503         0.961313        -94.1807         0.161422        -3.99644        0.0277101         79.4799  
                        0.961313        -94.1807         0.165155        -6.28503        0.0277101         79.4799         0.161422        -3.99644  
                        0.161422        -3.99644        0.0277101         79.4799         0.165155        -6.28503         0.961313        -94.1807  
                       0.0277101         79.4799         0.161422        -3.99643         0.961313        -94.1807         0.165155        -6.28503  
40                      0.164459        -8.50798         0.961439        -96.5316         0.160831        -6.25045        0.0275912         74.8447  
                        0.961439        -96.5316         0.164459        -8.50798        0.0275912         74.8447         0.160831        -6.25045  
                        0.160831        -6.25045        0.0275912         74.8448         0.164459        -8.50798         0.961439        -96.5316  
                       0.0275912         74.8448         0.160831        -6.25045         0.961439        -96.5316         0.164459        -8.50798  
41                      0.163504        -10.7339         0.961647        -98.8837         0.159985        -8.50655         0.027429          70.207  
                        0.961647        -98.8837         0.163504        -10.7339         0.027429          70.207         0.159985        -8.50655  
                        0.159985        -8.50655         0.027429          70.207         0.163504        -10.7339         0.961647        -98.8837  
                        0.027429          70.207         0.159985        -8.50655         0.961647        -98.8837         0.163504        -10.7339  
42                       0.16229        -12.9635         0.961936        -101.237         0.158881        -10.7654        0.0272235          65.566  
                        0.961936        -101.237          0.16229        -12.9635        0.0272235          65.566         0.158881        -10.7654  
                        0.158881        -10.7654        0.0272235          65.566          0.16229        -12.9635         0.961936        -101.237  
                       0.0272235          65.566         0.158881        -10.7654         0.961936        -101.237          0.16229        -12.9635  
43                      0.160816        -15.1972         0.962304        -103.593         0.157521        -13.0278        0.0269748         60.9212  
                        0.962304        -103.593         0.160816        -15.1972        0.0269748         60.9212         0.157521        -13.0278  
                        0.157521        -13.0278        0.0269748         60.9213         0.160816        -15.1972         0.962304        -103.593  
                       0.0269748         60.9213         0.157521        -13.0278         0.962304        -103.593         0.160816        -15.1972  
44                      0.159085        -17.4356         0.962748        -105.951         0.155905        -15.2942        0.0266829         56.2721  
                        0.962748        -105.951         0.159085        -17.4356        0.0266829         56.2721         0.155905        -15.2942  
                        0.155905        -15.2942        0.0266829         56.2721         0.159085        -17.4356         0.962748        -105.951  
                       0.0266829         56.2721         0.155905        -15.2942         0.962748        -105.951         0.159085        -17.4356  
45                      0.157095        -19.6792         0.963265        -108.312         0.154033        -17.5653         0.026348         51.6182  
                        0.963265        -108.312         0.157095        -19.6792         0.026348         51.6182         0.154033        -17.5653  
                        0.154033        -17.5653         0.026348         51.6182         0.157095        -19.6792         0.963265        -108.312  
                        0.026348         51.6182         0.154033        -17.5653         0.963265        -108.312         0.157095        -19.6792  
46                      0.154848        -21.9285         0.963852        -110.676         0.151904        -19.8415        0.0259702         46.9589  
                        0.963852        -110.676         0.154848        -21.9285        0.0259702         46.9589         0.151904        -19.8415  
                        0.151904        -19.8415        0.0259702         46.9589         0.154848        -21.9285         0.963852        -110.676  
                       0.0259702         46.9589         0.151904        -19.8415         0.963852        -110.676         0.154848        -21.9285  
47                      0.152345        -24.1838         0.964504        -113.043         0.149521        -22.1235        0.0255497          42.294  
                        0.964504        -113.043         0.152345        -24.1838        0.0255497          42.294         0.149521        -22.1235  
                        0.149521        -22.1235        0.0255497          42.294         0.152345        -24.1838         0.964504        -113.043  
                       0.0255497          42.294         0.149521        -22.1235         0.964504        -113.043         0.152345        -24.1838  
48                      0.149587        -26.4454         0.965217        -115.414         0.146884        -24.4115        0.0250865         37.6231  
                        0.965217        -115.414         0.149587        -26.4454        0.0250865         37.6231         0.146884        -24.4115  
                        0.146884        -24.4115        0.0250865         37.6231         0.149587        -26.4454         0.965217        -115.414  
                       0.0250865         37.6231         0.146884        -24.4115         0.965217        -115.414         0.149587        -26.4454  
49                      0.146574        -28.7137         0.965987        -117.789         0.143993         -26.706        0.0245811          32.946  
                        0.965987        -117.789         0.146574        -28.7137        0.0245811          32.946         0.143993         -26.706  